# vtk DataFile Version 4.2
Generated by LIGGGHTS
ASCII
DATASET POLYDATA
POINTS 14280 float
-0.0025061 -0.034094 -0.00263325 -0.00218892 -0.0338884 -0.00277051 -0.00167168 -0.0344755 -0.0028372 
-0.00146572 -0.0343406 -0.00264351 -0.00223168 -0.0342233 -0.00255343 -0.0018356 -0.034187 -0.00260992 
-0.00151731 -0.0339641 -0.00250669 -0.00167386 -0.0345467 -0.00253158 -0.000117873 -0.0339689 -0.00276965 
-0.000633519 -0.0346949 -0.00285234 -0.000775284 -0.034416 -0.00285227 -0.000944955 -0.0346773 -0.0028196 
-0.000462289 -0.034177 -0.00277052 -0.000397886 -0.0345658 -0.00269017 -0.000322523 -0.0348358 -0.00283059 
-0.000105946 -0.0346816 -0.00266394 -0.000804043 -0.0338333 -0.00269408 -0.000449345 -0.0349187 -0.00255626 
-0.00115055 -0.0341289 -0.0025114 -0.00250009 -0.0328815 -0.00259088 -0.00172134 -0.0337391 -0.00276998 
-0.00129567 -0.0326034 -0.00277056 -0.00235158 -0.0326136 -0.00252573 -0.00214031 -0.0328542 -0.00276902 
-0.0020838 -0.0334101 -0.00276891 -0.00162734 -0.0332723 -0.00265355 -0.00235172 -0.0331569 -0.00260963 
-0.00197316 -0.0331189 -0.00251563 -0.00204176 -0.0325711 -0.00250122 -0.000101285 -0.0332532 -0.00285211 
-0.000459566 -0.0330518 -0.00285267 -0.0006622 -0.0331396 -0.00262952 -0.0011504 -0.0329687 -0.00285359 
-0.000857881 -0.0327889 -0.00264693 -0.000117742 -0.0328578 -0.00276966 -0.00043354 -0.0333342 -0.00271833 
-0.000473901 -0.0328925 -0.00258362 -0.000135507 -0.0335904 -0.00263429 -0.000469355 -0.0325169 -0.00276873 
-0.000942394 -0.0335046 -0.0025084 -0.00219683 -0.0324563 -0.0027482 -0.00188532 -0.0323441 -0.00265315 
-0.00156357 -0.032109 -0.00271481 -0.00176318 -0.031688 -0.00256371 -0.00191438 -0.0320587 -0.0025255 
-1.19992e-05 -0.0325012 -0.00261592 -0.00116312 -0.032071 -0.00272273 -0.000663349 -0.031642 -0.00276977 
-0.00105016 -0.031555 -0.00270652 -0.000185011 -0.0315334 -0.00276834 -0.000114849 -0.0319197 -0.00285349 
-0.000491 -0.0312882 -0.00285189 -0.000350222 -0.03193 -0.00252998 -0.000966306 -0.0324028 -0.00266064 
-0.00072788 -0.0322113 -0.0027286 -0.00165512 -0.0305624 -0.00258879 -0.00149472 -0.0306173 -0.00285255 
-0.00175957 -0.0309076 -0.00276895 -0.00192742 -0.0301054 -0.00261256 -0.00162859 -0.030069 -0.00269885 
-0.00141694 -0.0303585 -0.00257457 -0.0013816 -0.0300549 -0.0025068 -0.00122628 -0.0304544 -0.00285207 
-0.00087358 -0.0311998 -0.00277002 -0.00040107 -0.0306952 -0.00254827 -0.000529885 -0.0303851 -0.00276989 
-0.000713087 -0.0306605 -0.00254224 -0.000374035 -0.0310379 -0.00270388 -0.000923355 -0.0303725 -0.0028527 
-0.000573664 -0.0307834 -0.00279525 -9.11662e-05 -0.0301485 -0.00265057 -0.000635212 -0.0309635 -0.00254699 
-0.00016783 -0.0305416 -0.00269402 -0.00114564 -0.0301514 -0.00285201 -0.000958201 -0.0308503 -0.00258996 
-0.00236467 -0.0292128 -0.00285256 -0.00208197 -0.029077 -0.0028519 -0.00206828 -0.0294709 -0.00276917 
-0.00147602 -0.0297977 -0.00265908 -0.00133198 -0.0293016 -0.00253207 -0.00125531 -0.0295747 -0.0026659 
-0.00101477 -0.0296499 -0.00285249 -0.00117669 -0.029875 -0.00270584 -0.000793494 -0.0299742 -0.00276926 
-0.00041774 -0.0290128 -0.00264068 -0.000599442 -0.02887 -0.00285251 -0.000654371 -0.0293238 -0.00254533 
-0.000991428 -0.029539 -0.00250013 -0.00211521 -0.0276861 -0.0027689 -0.00135234 -0.0278462 -0.00276924 
-0.00171491 -0.0276766 -0.00273155 -0.00181973 -0.0279456 -0.00285251 -0.00168373 -0.028189 -0.00270906 
-0.00140908 -0.0282353 -0.00285275 -0.00192268 -0.0283918 -0.00272076 -0.00197115 -0.0280976 -0.00262409 
-0.000317427 -0.0287524 -0.00278461 -0.000959564 -0.0278146 -0.00285189 -0.0006485 -0.0278558 -0.00285216 
-0.00101721 -0.0282033 -0.00276905 -0.000106108 -0.0279003 -0.00276913 -0.000224769 -0.0284815 -0.00265716 
-0.000611132 -0.0284776 -0.0027689 -0.000293449 -0.0282466 -0.00285271 -0.000454666 -0.0279266 -0.00257007 
-0.000380134 -0.0282304 -0.00255187 -0.000681183 -0.028143 -0.00255732 -3.3739e-05 -0.027513 -0.00285158 
-0.000427323 -0.0275301 -0.00276954 -0.00259103 -0.0263518 -0.00277 -0.00312183 -0.026452 -0.00285243 
-0.00280808 -0.0268321 -0.00257576 -0.00269309 -0.0269758 -0.00282973 -0.00288854 -0.0265292 -0.0025664 
-0.00280375 -0.0266836 -0.00285198 -0.00270204 -0.0272138 -0.00250628 -0.00223388 -0.0273111 -0.00285229 
-0.00182455 -0.0272914 -0.00276932 -0.00249459 -0.026734 -0.00285235 -0.0021512 -0.0269261 -0.00276935 
-0.00224678 -0.0265435 -0.0028519 -0.00147119 -0.0271164 -0.00285288 -0.00172654 -0.0269099 -0.00285199 
-0.00185324 -0.0265371 -0.00276942 -0.00137449 -0.0267353 -0.00276898 -0.00249746 -0.0268732 -0.00257156 
-0.00230791 -0.0266241 -0.00255502 -0.00140757 -0.0272647 -0.00258414 -0.00150068 -0.0263625 -0.00285174 
-0.00159765 -0.0270151 -0.00258539 -0.000959068 -0.027501 -0.00285235 -0.000438914 -0.0268791 -0.00285179 
-0.001202 -0.0274911 -0.0026546 -0.00107818 -0.0271258 -0.00276874 -0.000571852 -0.0271641 -0.0028528 
-0.000200551 -0.0266762 -0.00285219 -0.000139224 -0.0271339 -0.00276945 -0.000685816 -0.0266 -0.00285227 
-0.000983266 -0.0266974 -0.00285244 -0.000750809 -0.0269071 -0.0028519 -0.000412023 -0.0264462 -0.00285171 
-0.00110893 -0.0263245 -0.00276939 -0.000686024 -0.0263158 -0.00254127 -0.000681049 -0.0262869 -0.00285292 
-0.00376087 -0.0254796 -0.00276878 -0.00434448 -0.0251846 -0.00285268 -0.00415078 -0.0254305 -0.00285198 
-0.0043817 -0.0254126 -0.00264087 -0.00407374 -0.0251677 -0.00255659 -0.0040635 -0.0255676 -0.00251849 
-0.00335624 -0.0262438 -0.00285189 -0.00299891 -0.0260784 -0.00276902 -0.00255909 -0.0258624 -0.00276849 
-0.00315259 -0.025586 -0.00285276 -0.00262288 -0.0253629 -0.00285231 -0.00269422 -0.02538 -0.00254732 
-0.00284013 -0.0255885 -0.00285275 -0.00335532 -0.0255636 -0.00250681 -0.00344876 -0.0252328 -0.00271461 
-0.00299264 -0.0252263 -0.00276879 -0.00258162 -0.0250662 -0.00254464 -0.00264076 -0.0250508 -0.00285204 
-0.00205115 -0.026197 -0.00285233 -0.00216633 -0.0258824 -0.00285239 -0.00173976 -0.0261602 -0.00285158 
-0.00135773 -0.0254552 -0.00276913 -0.00224636 -0.0255802 -0.0028519 -0.00141301 -0.025941 -0.00276864 
-0.00177804 -0.0252032 -0.00276893 -0.00230354 -0.0256424 -0.00254982 -0.00201509 -0.0257472 -0.0026125 
-0.00185349 -0.0258678 -0.00285257 -0.00193281 -0.0255643 -0.00285254 -0.00168988 -0.0256629 -0.00267999 
-0.00227004 -0.0251876 -0.00276929 -0.00140476 -0.0250573 -0.0027348 -0.000407873 -0.0261324 -0.00285216 
-0.000698908 -0.0257523 -0.00285261 -0.000299557 -0.0258382 -0.00285219 -0.000900879 -0.0259912 -0.00285208 
-0.000870927 -0.0253985 -0.00276939 -0.00107925 -0.0257331 -0.00285216 -0.000449163 -0.0255633 -0.00285234 
-1.43577e-05 -0.0261081 -0.00276903 -0.000646818 -0.0260336 -0.00267255 -0.000120022 -0.0253486 -0.00276885 
-0.000535602 -0.0254803 -0.00256254 -0.000502958 -0.0252553 -0.00285196 -0.000723998 -0.0250336 -0.0028524 
-0.000978319 -0.0250243 -0.00266981 -0.00451136 -0.0239071 -0.00285223 -0.00418709 -0.0247973 -0.00285239 
-0.00482473 -0.0239181 -0.00285231 -0.00408917 -0.0244163 -0.0027689 -0.0040344 -0.0247682 -0.00258135 
-0.00401227 -0.0240423 -0.00264101 -0.00387455 -0.0238562 -0.00285246 -0.0038776 -0.0247484 -0.00285223 
-0.00375774 -0.0244631 -0.00254525 -0.00330753 -0.02499 -0.00285247 -0.00373003 -0.023919 -0.00258136 
-0.00357657 -0.0239542 -0.00285258 -0.00274031 -0.0239552 -0.00285237 -0.00358916 -0.0241986 -0.00255991 
-0.00358318 -0.0249496 -0.00270943 -0.00370237 -0.0244888 -0.00285225 -0.00349162 -0.0242566 -0.00285217 
-0.00309353 -0.0243093 -0.00263437 -0.00262994 -0.024394 -0.00276941 -0.00354374 -0.0246931 -0.00253376 
-0.00333064 -0.0238906 -0.00254142 -0.00211243 -0.0248277 -0.00285272 -0.00242503 -0.0248251 -0.00285187 
-0.00198729 -0.024411 -0.00285193 -0.00234888 -0.0239931 -0.00276937 -0.00196685 -0.0241145 -0.00274722 
-0.00226614 -0.0245552 -0.00283063 -0.00173641 -0.0247151 -0.0027693 -0.00135663 -0.0246141 -0.00285208 
-0.00153853 -0.0242667 -0.00276849 -0.00130299 -0.0238302 -0.00255947 -0.00201499 -0.0238304 -0.00261861 
-0.00164471 -0.0237897 -0.00276921 -0.00127974 -0.0239353 -0.002853 -0.000465723 -0.024266 -0.00285221 
-0.00114956 -0.0243218 -0.00285195 -0.000675282 -0.0247234 -0.0028523 -0.00119591 -0.0241205 -0.0026143 
-0.00107846 -0.0247578 -0.00285318 -0.000883551 -0.0244887 -0.0028517 -0.000325171 -0.0249034 -0.00276922 
-0.000639839 -0.0244413 -0.00265965 -7.15979e-05 -0.0242542 -0.0027688 -2.71975e-05 -0.0246455 -0.00285223 
-0.000824729 -0.0241006 -0.00276889 -0.000343114 -0.0244664 -0.00256197 -0.000388067 -0.0238808 -0.00276947 
-0.00398399 -0.0237346 -0.00258516 -0.00430477 -0.0236712 -0.00285246 -0.00468004 -0.023552 -0.002769 
-0.00400717 -0.0235718 -0.0028525 -0.00464687 -0.0231597 -0.00285175 -0.00471686 -0.0228545 -0.00285255 
-0.00427224 -0.0232797 -0.00276934 -0.00424085 -0.0225228 -0.00285231 -0.00387812 -0.0232701 -0.00285132 
-0.0044959 -0.0229636 -0.0026585 -0.0047989 -0.0229997 -0.00258706 -0.00418673 -0.0227332 -0.00262667 
-0.00394358 -0.0234231 -0.00258541 -0.00392576 -0.0230248 -0.00253501 -0.0045972 -0.0232344 -0.00253695 
-0.00375925 -0.0225895 -0.00267641 -0.00361336 -0.0235616 -0.00276926 -0.00343896 -0.0227693 -0.00285252 
-0.00368859 -0.0229578 -0.00285209 -0.00279596 -0.0230674 -0.00285217 -0.00310617 -0.0234125 -0.00258051 
-0.00291165 -0.0236913 -0.00285226 -0.00334546 -0.0231507 -0.00276874 -0.00322077 -0.0235238 -0.00285183 
-0.0030454 -0.0227633 -0.00276928 -0.00298802 -0.0233141 -0.00285254 -0.00297899 -0.0231253 -0.00260322 
-0.003453 -0.0226935 -0.00254841 -0.00276897 -0.0233363 -0.00250005 -0.00275849 -0.0226246 -0.00252493 
-0.00268025 -0.0237287 -0.00252564 -0.00265247 -0.0227884 -0.00285243 -0.00265059 -0.0234958 -0.00285194 
-0.0022729 -0.023386 -0.00276957 -0.00211948 -0.0230235 -0.00285151 -0.00185212 -0.0234448 -0.00276996 
-0.00248248 -0.023052 -0.00285177 -0.00172797 -0.0230611 -0.0027693 -0.00236922 -0.0226535 -0.00285188 
-0.00155119 -0.0234101 -0.00285348 -0.00134658 -0.0229597 -0.00285155 -0.00202131 -0.0227266 -0.00285215 
[...]
POINT_DATA 14280
FIELD FieldData 3
id 1 14280 int
29503 46702 56000 51799 38716 31778 58786 15991 18760 
40837 15446 29444 28014 9019 40682 53348 35451 20917 
13861 39628 34097 41772 46645 46704 9501 2507 56955 
54407 54137 27067 21928 9647 44326 49184 6695 46938 
51769 18177 2738 41587 2786 59332 59071 44199 36842 
30825 57134 53578 48487 59859 42566 58792 41056 44409 
39172 43786 33974 41074 21277 51451 38874 31452 46501 
36099 58733 51114 38709 53422 51362 48756 53530 28916 
48823 58690 51450 38801 28792 43444 31237 28822 36537 
58546 56216 55939 48797 58855 40938 31058 56063 56112 
56386 48675 36470 53491 21404 39031 53450 51329 56504 
46080 57381 56373 51057 56313 19191 43849 902 20381 
53378 23446 31573 28643 16578 10893 23625 23479 50998 
58624 53446 46065 21400 36523 36203 33661 14579 31204 
31367 36590 50980 34060 53849 50050 38979 43441 17705 
34795 57425 4871 43964 51366 57748 59817 58564 52198 
43567 21198 28596 9133 23474 58531 41015 48413 33660 
23919 38956 13189 31441 13047 11105 18937 23348 46371 
46283 33978 28563 26078 43814 48574 46161 13166 41018 
48457 36226 48866 23281 38893 56354 9131 53681 53716 
48410 56506 48734 41097 38526 38615 58732 51404 31462 
33559 31290 29026 9430 19061 21463 23936 19240 33790 
23912 44014 31049 36260 33705 23599 20973 31464 39043 
19093 676 13386 36137 13412 48809 46536 16147 18985 
23650 23499 16611 23451 25991 29093 31167 21496 47525 
56269 51176 23935 36252 1508 51046 16302 57354 50137 
33612 58943 53564 19401 21289 46165 21482 46324 48939 
53589 41327 44054 25988 1796 13590 26013 577 53802 
23563 46111 53636 26514 31455 11065 19225 28745 44000 
10771 41274 16185 10710 13515 20981 8083 28856 16399 
36167 45990 960 12914 28527 9418 31252 33800 51324 
1466 26381 41157 13628 21054 31298 58491 31082 1020 
12 48647 34038 13347 8256 33516 36065 38474 659 
10736 31037 33861 56080 23815 13167 40950 36584 16520 
23416 41323 33667 8028 1580 8165 16223 13545 43563 
58845 56048 16190 48489 20954 10827 20989 19383 58956 
48550 38503 41026 13153 26056 28852 19390 18968 36588 
31529 10690 9393 707 11076 21380 48867 1644 16637 
26323 35962 19079 56284 26044 9471 36057 53656 16347 
15947 1112 36512 180 8126 21278 40951 41410 28 
41319 56457 16542 26397 36314 48774 36528 26428 31389 
51121 26432 33645 25983 51360 9314 31075 38914 46222 
43793 34040 1492 380 48 1700 13414 714 31577 
8241 41270 38547 51427 19101 26417 13415 23636 19043 
26504 342 1598 13378 48529 51193 26375 26524 18943 
31056 40988 34050 33603 40940 871 16253 41383 26296 
23883 11030 1610 53504 59043 9446 18930 13535 38976 
13239 13224 23436 13226 46253 19265 9127 16160 31492 
56429 31402 33497 33652 56454 46514 13103 38945 38590 
53479 9220 13188 53427 15908 2003 13249 19023 1155 
26258 38749 23734 52 19270 43624 1658 41491 31150 
33767 21206 9415 46271 16317 28658 36384 991 13451 
41519 1750 36332 1325 31125 46110 48767 10745 46224 
20957 10864 41433 46443 26466 535 23630 19283 48686 
13067 30203 40942 13370 42508 36286 48853 59908 56059 
11129 45989 38692 46034 28666 57752 48689 10816 221 
272 616 23544 1585 16356 33993 25903 16500 28571 
1552 16009 15959 8216 9355 10799 1072 36403 8090 
23921 31483 38932 9286 1604 23701 1833 25939 46281 
48417 36540 43560 672 41404 29048 38826 43778 33751 
58497 15905 33706 31071 43602 33838 13466 38778 41134 
48783 22198 46262 16114 57350 48722 33820 50236 59953 
45971 59032 41438 53777 41046 1103 21501 21303 9192 
10999 562 13041 31026 8009 761 21458 25938 19399 
23629 23939 1976 21049 23663 1418 26444 51274 36489 
26266 21270 1664 770 9263 36388 14617 21213 33792 
217 8214 23733 31132 33492 51171 33857 34003 13492 
58656 56432 35098 1491 12151 15998 48923 43716 53736 
26275 50115 10844 28607 13325 38527 56422 38769 22129 
53469 46390 19167 8107 21022 23700 23339 9175 11154 
10682 8242 1462 13072 16374 43607 25951 41061 1776 
21340 41027 26018 46429 26335 31468 26096 19204 33523 
23689 13573 909 1297 9114 837 23820 28644 16234 
13540 28896 21294 14627 8205 1089 56310 27623 48706 
10733 11029 18106 10952 13319 9373 23924 17709 54755 
27343 47545 4453 46358 1347 46470 26327 45980 31241 
13381 13517 51418 30983 46385 38505 34054 1654 50971 
43789 41006 25973 712 58654 38697 56434 53922 58501 
1320 1269 31027 56500 31357 53500 54869 58570 35108 
15904 38738 16288 23372 19149 43730 56332 52292 49825 
44031 58533 24664 47492 9128 54723 59866 72 730 
36579 46540 21110 11106 10877 1400 16433 1662 41379 
9284 41373 44011 46316 389 31212 56207 1349 23476 
21515 41219 25904 31421 46189 19214 1944 11179 41331 
10989 56406 23915 41149 53680 53576 16584 51445 23332 
36447 30986 19388 45946 16628 18971 43902 58557 49981 
33695 51531 38621 52270 48664 46167 28956 54789 13602 
41445 42279 53667 23472 43974 31427 31926 53968 52712 
23920 26436 1228 36053 8001 434 12975 58982 56427 
10719 40997 1522 13440 56489 26040 16594 58675 15934 
9328 687 51381 58580 16167 1193 31557 13394 1918 
31309 16242 10882 29062 31234 23585 53780 43708 10755 
11035 13342 1373 40992 23911 23588 43845 21228 53858 
21292 28548 21276 10763 1186 38890 51028 50990 20073 
35969 26332 51271 41036 10956 48496 53870 28802 36076 
23285 59711 9487 16045 23293 50908 9285 398 1625 
1993 33844 33451 38693 51198 8040 1641 13334 21312 
23580 38883 51098 31023 33807 13025 19235 55936 46415 
53707 36107 1703 1756 8259 56309 21351 13192 8222 
10863 10897 13463 38492 236 48617 13283 846 26385 
499 18984 15963 19215 21452 25908 11187 16626 66 
1191 418 834 19221 835 48666 604 58837 48981 
9194 36399 51182 31165 38485 21402 1291 23754 31057 
29140 26454 19151 21284 33590 26150 16449 34012 23712 
8140 41105 1177 43487 28836 31097 13479 9426 43457 
16141 46472 58721 56189 35968 1324 23857 40947 38827 
993 1289 9281 455 28925 23846 38879 29001 33835 
16240 51005 53923 43773 31531 19312 1840 26345 19035 
19202 16278 13275 1480 222 58 20972 33778 33687 
37472 28530 23886 23497 19253 36461 53720 57210 54010 
1339 38521 20970 35983 913 19367 16306 9378 28806 
31491 13010 8159 33937 58547 41465 26182 33469 41069 
58544 13366 9274 26076 38707 56003 48869 38940 51231 
48997 31349 21275 28829 16159 25997 51396 28823 109 
21319 10798 745 769 1523 12995 10742 15911 53878 
46329 46287 19163 16232 10644 23562 471 23884 860 
10643 23386 864 26362 33473 53386 19070 33444 56126 
38719 53572 29055 36000 58804 15969 28821 13379 9455 
31566 38758 35981 31177 48974 26130 26061 26308 23591 
59006 41003 16305 48434 16340 26453 36578 28726 43880 
58818 16544 26413 28850 36006 23363 11127 8180 19389 
28709 8149 39071 16510 1404 26261 36044 43540 33466 
43922 56067 26065 46374 25986 16293 38780 31106 23457 
38667 25963 56528 43645 53493 16137 21235 1934 26124 
33479 11955 20967 26185 31307 28715 26072 16360 15996 
26316 31326 36355 45959 21082 19181 58471 58772 59029 
21279 28932 9458 43794 46363 26309 9166 46175 41451 
26158 28668 48982 21118 36378 21272 48762 51371 58669 
58873 28556 43541 53582 47181 50911 51215 41369 59843 
11272 23904 13201 26198 8116 20990 508 58608 396 
19211 13372 595 44018 19393 442 1813 19474 31139 
19306 23914 9187 31580 36114 10876 18987 726 46330 
31131 10801 23609 8200 23365 56385 41350 38473 751 
16294 13121 1443 19316 1595 13523 36077 355 9398 
19261 1312 56481 48763 19350 11020 3505 3491 19709 
23707 13884 11528 1153 16071 11726 8499 36680 16668 
21780 3297 14312 2089 11409 44379 16046 3565 9646 
1578 13580 1049 24122 12982 23784 11140 13935 11738 
27089 15160 32110 43157 3352 29490 1260 110 421 
112 557 37900 49089 49185 47127 54646 17370 19643 
32170 5802 6261 24321 51608 21693 21752 17226 9742 
29748 2863 44352 2861 2458 2919 3387 2552 26950 
21846 21774 54077 36935 11351 19494 36649 13863 3665 
44517 3509 24106 31915 29269 35776 32117 46770 32111 
42137 56840 32181 47146 59328 49156 2817 44624 54509 
42842 57173 46882 51674 59289 40645 37056 59185 46699 
28017 55621 51710 59336 51599 26846 24202 24052 36959 
3418 17122 24085 41987 29582 17016 31876 14285 21844 
14145 36755 11483 9637 8509 19597 34106 9689 41887 
41833 11556 34261 31908 19832 41703 54454 44195 49522 
49119 26960 59305 21583 44122 49429 39393 3301 19431 
3389 31751 51666 29687 56747 60360 42021 15181 36665 
49161 51646 33170 11571 42020 55331 54591 59519 24539 
9786 34101 31054 33832 36525 57077 8276 33634 51301 
49348 33 48557 43551 51083 38768 36499 36971 49537 
36058 31261 54574 55972 48899 59326 36850 44308 49162 
34631 33982 43813 47015 6041 29993 49173 57167 47173 
41281 49222 6598 48456 48999 59197 48396 58522 54585 
46145 39844 58105 25663 13261 54014 57120 49704 38666 
38942 28529 33605 50726 57730 59318 2697 31796 57011 
56948 48613 17007 56706 46011 58980 31960 48627 11109 
58789 2659 39643 41239 11334 29033 11398 53694 2539 
19326 39168 31079 59655 37065 22046 41770 13658 44683 
34638 42163 44482 57165 19648 44182 21822 58968 56037 
29551 36784 13657 36915 41870 31847 49235 44602 59215 
46948 46398 54523 19752 59249 16173 44540 31687 29297 
31725 47057 36723 39241 56764 25421 55908 56394 41811 
49453 2445 56916 56678 2061 49632 54568 59324 59239 
59613 39196 46606 41510 34433 39336 13872 57069 11309 
29173 56819 24405 57029 46266 56043 48409 57620 54132 
44283 46889 56591 42138 3824 22021 19904 6419 54278 
44115 54361 34251 36701 13645 42177 21996 34213 2683 
3455 56874 58062 43356 13984 32157 26554 21084 10721 
26437 23494 44028 33932 43728 41005 36078 41265 21349 
23781 28747 58506 23379 36402 48977 31163 43807 38793 
51099 56267 51067 33960 58965 53971 56277 43652 46147 
60241 19542 56248 41104 19245 26123 31513 26526 21148 
28535 48858 46153 16296 33670 46299 41092 48815 43499 
40934 26213 31434 28677 33808 53824 20943 23415 28572 
23330 46515 53482 21440 41453 56397 28857 58919 28923 
56098 16092 21378 25949 23861 13208 28550 19376 23475 
1512 36163 18927 16093 46521 19415 33584 38775 43875 
24156 33720 16457 13476 10754 630 41506 36178 41145 
28913 19052 36511 9428 53691 44716 53518 39015 31486 
12968 19416 479 28582 1309 38919 1116 31382 11095 
9349 13144 13399 12866 13184 23605 16044 38994 48616 
54540 1823 21370 16633 28893 51435 49337 11185 13134 
47519 38657 48731 21518 38722 26020 55997 48648 48947 
25900 34043 41432 38998 39688 31338 38689 52092 16577 
55158 13558 51262 1696 297 26474 19217 10662 1920 
26125 1460 255 21033 11062 29647 59598 10974 13011 
1814 10777 19291 54438 24496 23298 11002 31016 10833 
12896 360 16174 21059 54612 1697 16907 28787 52044 
11012 8269 1024 56396 36809 36803 11073 13111 36164 
55693 16828 13050 25989 9209 9385 19053 38696 53666 
59005 542 9368 13175 36519 21249 13454 28907 21024 
16361 11123 36391 28649 704 1467 16460 978 1057 
1922 13544 313 21179 16465 28959 1407 13504 8211 
378 23384 21167 10722 13194 10706 8229 23329 1283 
9282 21524 1120 1550 1262 13594 18977 1738 49383 
23454 1674 23448 263 19015 279 19095 1558 1079 
21015 19194 756 485 41086 13063 13073 12991 41497 
703 452 8199 10939 28630 8260 19077 16516 38602 
21260 10954 21180 19060 46397 41080 33919 21138 19067 
53492 16514 23887 33927 23490 21248 20953 49033 33575 
9215 34008 33594 28994 50977 45978 23610 21035 13285 
1748 13185 12937 1853 16632 1928 177 9489 1457 
28595 1541 522 28841 23440 1087 23659 10657 1990 
668 9401 36429 21 1634 31495 1698 12922 15955 
1296 439 13335 19195 9197 1016 23557 26469 161 
13458 228 11039 511 635 25934 23430 21509 9297 
12904 10661 10806 56 8142 28710 21281 23597 35971 
23467 8071 11000 13402 33489 28736 26077 23500 199 
1144 55944 46493 36385 56264 43648 12871 200 16091 
31036 46172 19009 31235 33914 52505 42293 23807 1953 
36452 48741 19252 13114 296 9204 8047 19342 9311 
242 13141 664 1961 304 16349 13183 10761 1682 
13610 16226 8193 31362 34062 11049 29002 21382 8021 
8073 9268 21092 446 13627 10764 36230 36232 43935 
38925 36188 21079 10921 13316 43876 23478 816 38859 
36186 16408 10793 13142 16543 621 25929 36007 33445 
51464 1537 36135 48702 29084 18057 23477 1314 532 
43767 36339 1799 29131 21455 41212 23589 26256 37408 
10749 10017 20961 19410 26087 8114 10890 344 53977 
13151 38706 44042 9176 1691 1115 1758 686 1900 
1264 16255 31046 41427 8213 8103 9217 9118 19084 
397 33959 568 9313 26121 10908 29086 10851 16146 
38880 38680 41220 58516 20974 10958 681 48687 33454 
26129 9419 18982 36306 26168 38995 36380 10925 348 
43826 58740 19352 16258 16572 35989 23548 23827 23375 
12883 302 41211 53710 26353 46237 10683 28703 48463 
43732 26368 31240 28682 1529 38558 46513 21261 33551 
36088 100 34814 46245 8158 51038 1577 19956 1777 
13241 30225 13503 31387 43795 20971 56462 31258 19262 
1317 13090 43590 43851 40956 25898 19132 11041 1470 
13561 23635 619 31397 41481 45992 18959 28901 21405 
9193 1094 8258 21078 35979 10826 13312 16076 35996 
1614 292 36367 23832 25953 19074 12898 33763 43941 
28756 8011 31316 13608 41461 16178 46488 51498 29077 
19248 38992 16104 28743 36266 40976 16263 46099 12909 
31565 28661 38786 23837 29029 40939 53863 51278 56420 
28842 31589 31512 58603 49848 38800 36488 1332 36416 
8087 19408 56408 21273 46035 33837 30995 13568 38629 
23523 1564 969 15954 19098 26157 38708 43483 26334 
46122 565 31028 46177 23569 51469 33849 38612 36187 
29079 15936 21074 50986 48775 51200 50919 38833 43668 
33826 38852 23799 16468 1244 28699 31107 38639 58784 
56140 48862 9228 23745 20980 46176 58881 54908 48911 
46424 13002 31000 28860 43583 36204 41215 26306 52645 
46078 48828 51080 21083 36311 36305 51240 38701 53520 
53899 48626 48533 363 26287 28604 29143 30994 48441 
51103 19138 45961 12893 382 19267 9208 41013 36313 
13611 51449 53925 28652 9167 29065 51123 53514 29046 
36027 16218 48759 48948 38598 38617 59730 46066 58576 
43887 43811 31353 48542 51257 31584 36375 51384 28690 
28611 41175 968 31008 8177 798 36148 25901 51222 
36247 15948 1014 1096 20956 42318 58664 47318 28995 
45052 43641 55247 58588 57559 41313 50907 53665 44430 
30976 58803 43608 57606 46458 36547 46535 11107 13564 
41268 40971 19411 16324 41040 912 10853 28795 13351 
19012 31225 13442 31198 19227 43745 43439 36285 10874 
1171 16068 21218 12969 19400 13065 13359 23778 9264 
15942 28674 56334 28982 23679 31072 31586 19254 9207 
11150 346 26166 938 41405 43936 53442 41076 43860 
23505 58749 33656 58551 16094 10680 31233 51444 56518 
50991 58962 56108 60123 11121 29025 13253 33502 38862 
31102 21266 10797 21520 10818 21236 51316 36040 9412 
25961 281 820 541 23594 18962 13165 1328 10668 
282 41 16481 697 13383 10917 151 1043 1759 
10834 523 9462 548 13461 9316 9310 11167 32312 
56254 29071 21343 13233 19013 741 36422 13138 19193 
41346 29398 13273 31208 31401 11589 8182 29016 1542 
21265 12949 11042 16079 58707 16066 26177 36018 10980 
16243 9214 612 13230 1068 31231 23658 13418 31465 
526 65 1310 9301 23587 10794 1197 1607 1385 
1792 68 19237 826 15933 9357 1546 127 13237 
13143 845 154 1448 28986 748 9109 9388 15910 
1588 23508 1903 545 315 19662 10752 16337 30992 
29103 1276 11137 50952 13 1732 1003 26324 1272 
28056 1303 16260 23872 13562 8152 10943 8080 28920 
26505 21042 21120 28804 34032 727 36516 31542 18 
20949 8035 10647 1902 19086 26098 38764 9303 36168 
23816 16008 1935 27111 56035 10714 41218 11097 31018 
16032 118 743 16284 8162 685 11135 13556 13159 
13157 13210 21300 838 1898 16450 417 8078 19018 
1268 218 9265 21489 13001 21134 594 9195 13445 
9389 21188 10659 654 789 8046 25985 23431 19405 
13616 38948 16182 43589 529 21145 148 539 21503 
11099 18932 450 13481 29072 26414 1192 21136 33895 
19010 19197 31356 9170 19154 26359 36096 13135 33586 
18986 23938 43842 28835 46348 33888 15926 9203 26401 
13049 35977 41170 23433 46256 26200 1873 341 31478 
43994 19040 16297 29085 8174 31073 15 261 31263 
10685 29080 1536 8128 11144 23768 8058 457 16446 
33746 1708 8057 16156 12907 15960 8041 13204 227 
11064 99 74 10772 31020 16070 286 1481 9210 
16346 115 8189 26532 926 195 9239 572 953 
23673 13133 13232 466 16550 1923 36551 412 534 
28997 11126 31363 38982 662 33798 29115 28729 15914 
13245 38970 692 13087 9477 21087 21135 31264 23894 
1548 21182 16319 17155 29027 41217 33459 23277 38644 
33638 23551 26452 16585 33967 39006 41515 31281 21208 
13596 38760 56285 9431 56237 1554 23361 13109 26238 
821 21324 160 10850 16615 9248 16501 19297 16380 
21342 53785 1030 16036 1432 13174 16 925 8093 
23341 71 16576 26 1783 1336 1386 1359 351 
13129 884 16041 36581 36522 8013 21508 9296 339 
1011 10915 23306 76 21398 41030 13377 28738 33933 
13060 11014 57457 41111 19339 21271 25954 23308 26456 
15984 19328 26210 21383 23869 26091 13238 16290 18956 
25937 36938 14039 11075 26208 40981 26089 46220 31392 
23760 17040 33526 13068 10713 23443 56523 24237 21756 
31169 28800 41223 31066 25968 36548 26410 43549 43572 
36423 28775 13307 23906 10781 51236 36028 16325 41472 
85 21317 10909 56303 18996 16283 9288 1157 564 
13168 41216 44023 11090 10903 384 1626 9435 19288 
656 36261 13555 12945 1893 16526 1056 33442 8111 
23576 13118 28793 31487 21061 26004 9331 10651 16341 
25899 16163 28717 51247 31034 23350 23743 19119 16162 
38623 33850 33966 43606 41241 13191 19289 38490 34055 
48426 43653 31396 21224 38546 41196 51409 41502 1699 
8166 36518 31407 58561 33975 48412 21516 16311 33585 
23811 29243 17161 28865 53750 48800 31328 27099 13028 
53887 33592 43908 33460 36074 23690 33944 19183 23713 
36032 36041 43456 9399 33595 21495 36010 23621 10756 
41240 46056 16050 31171 36254 53811 19309 10738 16101 
33475 16575 56321 51042 58932 51093 41421 49014 48802 
31567 33563 9421 51208 31482 38762 36152 1074 41176 
38941 41073 13074 38900 36244 23590 36484 53634 31450 
53508 48599 46456 26352 55933 51372 56409 41112 38795 
46197 53969 26241 38493 38576 51163 33719 41544 33877 
36288 46534 822 53873 36079 19171 19846 19784 1999 
31156 1413 25981 38508 34041 26154 23516 18934 23843 
33947 19065 25960 16249 23280 28521 56623 21897 31288 
28977 19337 38875 38884 48842 28758 19135 13105 1403 
23740 28603 53664 1844 33453 33631 19593 36448 53609 
53695 25915 42601 16348 19201 44001 42548 28967 617 
29152 23328 46436 56058 58745 56529 56046 48633 50961 
43996 56316 38594 51174 58702 56430 51272 26026 53689 
21522 23617 28944 54194 31327 51482 26085 51133 58663 
58475 31776 41634 34363 29501 34687 24532 49114 29267 
54047 34426 29454 21972 59368 51943 34134 54508 29400 
59436 34297 33432 26877 36983 44322 56851 51974 54634 
47172 34691 24279 56698 57091 36880 46999 47122 44208 
24213 19730 29317 19633 16680 54294 2464 44468 46826 
21868 44270 42014 21891 26572 41893 11053 171 23342 
23649 23895 20178 54550 36920 21829 59638 39227 44414 
49425 44243 52088 55914 56754 59610 54060 44479 34421 
36917 59096 49351 46967 44336 21743 54264 19692 39309 
36834 57194 13881 2943 54544 13859 2499 54210 17307 
14292 55413 44272 46751 29096 29736 40566 41414 11360 
31856 3084 34182 14006 42001 11655 16729 19750 2439 
26539 19489 22084 9801 21720 16683 2761 19502 19821 
19817 36683 31690 34133 51762 31812 17024 21630 9586 
13912 16846 16672 11676 11482 11697 2674 29762 2482 
21958 24063 3575 27103 21968 44136 51963 22679 31967 
42066 16666 16823 9839 6488 26559 51617 2533 31822 
24453 9527 51792 37036 59480 14101 26817 39108 24499 
48124 39427 48520 56928 57193 39327 43764 43640 38752 
51501 41204 48717 53931 38790 59049 41370 26467 51044 
38668 43980 48732 43677 56741 59260 16518 59819 28551 
40966 46282 39029 26493 16314 40946 31283 16007 36370 
53455 51111 46370 59389 57613 41001 53453 51637 59303 
56060 21664 49604 41583 57061 13847 41452 44684 59275 
48661 37115 2784 22015 36799 31894 56775 49387 54042 
34516 46942 37125 49410 29191 39419 39433 47072 59435 
56766 54098 39346 39111 51579 54600 36663 59430 49401 
51639 49217 24039 54075 59645 39639 54112 36946 39424 
38672 53484 49319 53844 41876 53470 49519 44015 52037 
49560 56713 44519 31792 47174 51603 26949 51757 49218 
26970 51783 51518 29482 34428 16860 16809 16987 39271 
54622 27165 49616 6079 60573 23226 39380 34143 54980 
47067 32021 51727 24274 52014 59209 26843 59189 54478 
57136 59170 56679 54283 51828 29510 44388 29678 31692 
49253 34156 16865 36827 44112 59184 51528 46672 29580 
22085 13651 17301 46786 15909 33562 48728 41023 8084 
26145 43462 11103 36193 21065 33899 1761 11122 33989 